#!/usr/bin/make -f
# Forces the debhelper tool to make a fine grained build report
# Remove it before releasing
export DH_VERBOSE = 1

%:
	dh $@

override_dh_auto_build:
	cd src && make

# hello.ko will be copied to ./lib/modules/*/extra/
override_dh_auto_install:
	cd src && INSTALL_MOD_PATH=$(CURDIR)/debian/hello-module make install

override_dh_auto_clean:
	dh_auto_clean && cd src && make clean

# override_dh_usrlocal:

